32
Lattice="4.20203877 0.0 0.0 0.0 4.16474724 0.0 0.0 0.0 5.87899733" Properties=species:S:1:pos:R:3:unwrapped_position:R:3 Time=20500.00000001 virial="256.25441514 -0.17538302 -1.43219407 -0.17538302 258.31757774 6.3500405 -1.43219407 6.3500405 255.37696499" phase=C2N2H2O2-Pn pressure=400 temperature=500 energy=-148.86065102 stress="2.49847108 -0.00447989 -0.01694478 -0.00447989 2.51865702 0.06323435 -0.01694478 0.06323435 2.49188803" pbc="T T T"
H        3.93579864       1.75411376       2.78285000       3.93579864       1.75411376       2.78285000
H        2.09750843       2.43935098       1.47074276       2.09750843       2.43935098       1.47074276
H        3.98728264       2.37220351       1.15339375      -0.21475613       2.37220351       1.15339375
H        1.55582571       1.47053936       2.83994095       1.55582571       1.47053936       2.83994095
H        3.59126043       1.45805457       5.59245995       3.59126043       1.45805457       5.59245995
H        2.25899041       2.39438187       4.30577882       2.25899041       2.39438187       4.30577882
H        1.69792562       1.73900145       5.80046677       1.69792562       1.73900145       5.80046677
H        0.03122058       2.55278988       4.43900907       4.23325935       2.55278988       4.43900907
C        0.39755976       0.54771350       1.31283014       0.39755976       0.54771350       1.31283014
C        3.50193737       3.62672682       2.88270799       3.50193737       3.62672682       2.88270799
C        2.48266242       0.55075609       1.38749404       2.48266242       0.55075609       1.38749404
C        2.44112370       0.62547825       4.32338431       2.44112370       0.62547825       4.32338431
C        1.43582935       3.51347648       5.80417672       1.43582935       3.51347648       5.80417672
C        0.40590902       0.55670099       4.39328592       0.40590902       0.55670099       4.39328592
C        1.42177923       3.56688884       2.91692657       1.42177923       3.56688884       2.91692657
C        3.50878597       3.59463289       5.78998701       3.50878597       3.59463289       5.78998701
N        1.41534881       0.50048789       5.15106943       1.41534881       0.50048789       5.15106943
N        2.43060982       3.68346308       3.68347558       2.43060982       3.68346308       3.68347558
N        3.48479264       0.55592415       5.06860658       3.48479264       0.55592415       5.06860658
N        0.42315492       3.59141630       0.68766748       0.42315492       3.59141630       0.68766748
N        3.57107074       0.55887007       2.13067466       3.57107074       0.55887007       2.13067466
N        2.47644022       3.63815775       0.73034179       2.47644022       3.63815775       0.73034179
N        1.46851341       0.52928321       2.18848296       1.46851341       0.52928321       2.18848296
N        0.38259775       3.66399901       3.63526342       0.38259775       3.66399901       3.63526342
O        0.43330366       1.51456845       3.65522830       0.43330366       1.51456845       3.65522830
O        3.43368159       2.62473511       2.18065363       3.43368159       2.62473511       2.18065363
O        3.47465039       2.55870764       5.09850976       3.47465039       2.55870764       5.09850976
O        1.40937000       2.52168621       5.07522709       1.40937000       2.52168621       5.07522709
O        0.43086198       1.63940260       0.67678609       0.43086198       1.63940260       0.67678609
O        1.30290209       2.60286802       2.21208737       1.30290209       2.60286802       2.21208737
O        2.52286175       1.65481031       0.68485671       2.52286175       1.65481031       0.68485671
O        2.52931065       1.57506217       3.61061286       2.52931065       1.57506217       3.61061286
