32
Lattice="4.20203877 0.0 0.0 0.0 4.16474724 0.0 0.0 0.0 5.87899733" Properties=species:S:1:pos:R:3:unwrapped_position:R:3 Time=5500.0 virial="254.08596052 -1.82806516 -8.02690498 -1.82806516 255.52659402 3.69164514 -8.02690498 3.69164514 256.97389007" phase=C2N2H2O2-Pn pressure=400 temperature=500 energy=-148.85254288 stress="2.47819678 -0.01690402 -0.07854015 -0.01690402 2.49692259 0.03692225 -0.07854015 0.03692225 2.51547461" pbc="T T T"
H        3.81010607       1.56606473       3.10796836       3.81010607       1.56606473       3.10796836
H        2.52210261       2.62913042       1.37460969       2.52210261       2.62913042       1.37460969
H        0.21845273       2.44519527       1.64302783       0.21845273       2.44519527       1.64302783
H        1.70399186       1.56243254       2.90493533       1.70399186       1.56243254       2.90493533
H        3.21970658       1.82296747       5.81065038       3.21970658       1.82296747       5.81065038
H        2.36764417       2.58937427       4.42673944       2.36764417       2.58937427       4.42673944
H        1.24430879       1.70621526       0.07999095       1.24430879       1.70621526       5.95898828
H        0.47065139       2.63011313       4.33723835       4.67269016       2.63011313       4.33723835
C        0.31455379       0.62038294       1.32343952       0.31455379       0.62038294       1.32343952
C        3.52851382       3.56387750       2.86445900       3.52851382       3.56387750       2.86445900
C        2.48390741       0.59223518       1.40171910       2.48390741       0.59223518       1.40171910
C        2.48564030       0.56381504       4.37128487       2.48564030       0.56381504       4.37128487
C        1.36351113       3.57299116       5.84236813       1.36351113       3.57299116       5.84236813
C        0.41718743       0.55320829       4.32314914       0.41718743       0.55320829       4.32314914
C        1.41944010       3.57083138       2.83855018       1.41944010       3.57083138       2.83855018
C        3.44636772       3.60615948       5.79440312       3.44636772       3.60615948       5.79440312
N        1.40488131       0.50929427       5.12818910       1.40488131       0.50929427       5.12818910
N        2.48758534       3.66561150       3.63257535       2.48758534       3.66561150       3.63257535
N        3.55116023       0.56568874       5.09116501       3.55116023       0.56568874       5.09116501
N        0.36525195       3.62653174       0.69770887       0.36525195       3.62653174       0.69770887
N        3.57157611       0.52999892       2.12600377       3.57157611       0.52999892       2.12600377
N        2.48182045       3.65068685       0.74971830       2.48182045       3.65068685       0.74971830
N        1.43807000       0.54920815       2.14311099       1.43807000       0.54920815       2.14311099
N        0.40440438       3.59949789       3.66080474       0.40440438       3.59949789       3.66080474
O        0.45785409       1.60063101       3.65086054       0.45785409       1.60063101       3.65086054
O        3.48956168       2.53828138       2.23120944       3.48956168       2.53828138       2.23120944
O        3.50567313       2.55451446       5.06605870       3.50567313       2.55451446       5.06605870
O        1.47028651       2.55545909       5.07901551       1.47028651       2.55545909       5.07901551
O        0.29426056       1.63544811       0.67632435       0.29426056       1.63544811       0.67632435
O        1.44097311       2.58364078       2.15785992       1.44097311       2.58364078       2.15785992
O        2.43550697       1.55398377       0.67803600       2.43550697       1.55398377       0.67803600
O        2.46155225       1.59737232       3.65942604       2.46155225       1.59737232       3.65942604
