32
Lattice="4.20203877 0.0 0.0 0.0 4.16474724 0.0 0.0 0.0 5.87899733" Properties=species:S:1:pos:R:3:unwrapped_position:R:3 Time=25500.00000002 virial="259.67508702 -0.83793542 1.25020046 -0.83793542 250.17734713 -0.62694155 1.25020046 -0.62694155 254.99635534" phase=C2N2H2O2-Pn pressure=400 temperature=500 energy=-149.64844251 stress="2.53633304 -0.01232032 0.01593615 -0.01232032 2.44285987 -0.00632175 0.01593615 -0.00632175 2.48984832" pbc="T T T"
H        3.66907800       1.74557150       3.10919051       3.66907800       1.74557150       3.10919051
H        2.02858762       2.46373943       1.42940969       2.02858762       2.46373943       1.42940969
H        4.14165674       2.28335956       1.39335779      -0.06038203       2.28335956       1.39335779
H        1.56014692       1.63577508       2.74017099       1.56014692       1.63577508       2.74017099
H        3.64395520       1.56736720       5.66963600       3.64395520       1.56736720       5.66963600
H        2.44937677       2.65584890       4.17641401       2.44937677       2.65584890       4.17641401
H        1.77469520       1.79499174       5.82887459       1.77469520       1.79499174       5.82887459
H        0.31911562       2.41967835       4.49494813       4.52115439       2.41967835       4.49494813
C        0.39738993       0.58087449       1.38350550       0.39738993       0.58087449       1.38350550
C        3.53748019       3.59800722       2.84918256       3.53748019       3.59800722       2.84918256
C        2.51634068       0.57495000       1.40301282       2.51634068       0.57495000       1.40301282
C        2.46363866       0.59503508       4.32821961       2.46363866       0.59503508       4.32821961
C        1.46050056       3.59806762       5.76954500       1.46050056       3.59806762       5.76954500
C        0.39029818       0.57521778       4.36592951       0.39029818       0.57521778       4.36592951
C        1.36157727       3.57420008       2.88349308       1.36157727       3.57420008       2.88349308
C        3.52606515       3.58655085       5.82368305       3.52606515       3.58655085       5.82368305
N        1.38912497       0.56603608       5.11227257       1.38912497       0.56603608       5.11227257
N        2.46535032       3.63880687       3.61728346       2.46535032       3.63880687       3.61728346
N        3.48559466       0.53902733       5.16148849       3.48559466       0.53902733       5.16148849
N        0.39778320       3.65501788       0.69310366       0.39778320       3.65501788       0.69310366
N        3.56132444       0.51805418       2.11041029       3.56132444       0.51805418       2.11041029
N        2.44845010       3.55095865       0.71139652       2.44845010       3.55095865       0.71139652
N        1.44294672       0.49841662       2.15172470       1.44294672       0.49841662       2.15172470
N        0.38808026       3.61832467       3.66986495       0.38808026       3.61832467       3.66986495
O        0.34356035       1.55693458       3.63674678       0.34356035       1.55693458       3.63674678
O        3.47385430       2.57276633       2.20368713       3.47385430       2.57276633       2.20368713
O        3.54327100       2.55448468       5.07305318       3.54327100       2.55448468       5.07305318
O        1.45096888       2.57687308       5.04022344       1.45096888       2.57687308       5.04022344
O        0.41918455       1.67594718       0.72783301       0.41918455       1.67594718       0.72783301
O        1.29940061       2.53257596       2.22027984       1.29940061       2.53257596       2.22027984
O        2.51207858       1.62487903       0.72536528       2.51207858       1.62487903       0.72536528
O        2.48883733       1.61750260       3.58318320       2.48883733       1.61750260       3.58318320
