32
Lattice="4.20203877 0.0 0.0 0.0 4.16474724 0.0 0.0 0.0 5.87899733" Properties=species:S:1:pos:R:3:unwrapped_position:R:3 Time=15500.0 virial="261.86209886 -0.1587582 0.13700718 -0.1587582 252.08317522 4.6790951 0.13700718 4.6790951 258.4356498" phase=C2N2H2O2-Pn pressure=400 temperature=500 energy=-148.52841878 stress="2.55301314 -0.00226626 0.00199467 -0.00226626 2.46121653 0.04877083 0.00199467 0.04877083 2.53265736" pbc="T T T"
H        3.52781332       1.61213607       2.77974650       3.52781332       1.61213607       2.77974650
H        2.83488888       2.65164388       1.35979798       2.83488888       2.65164388       1.35979798
H        0.46552809       2.41849443       1.59263055       0.46552809       2.41849443       1.59263055
H        1.50985728       1.69569299       2.67134680       1.50985728       1.69569299       2.67134680
H        3.18725042       1.69496937       0.02562253       3.18725042       1.69496937       5.90461986
H        2.42411747       2.51968314       4.41634099       2.42411747       2.51968314       4.41634099
H        1.26082623       1.61998260       0.03375117       1.26082623       1.61998260       5.91274850
H        0.43097996       2.61135357       4.41812766       4.63301872       2.61135357       4.41812766
C        0.36663003       0.58186435       1.41548152       0.36663003       0.58186435       1.41548152
C        3.54104018       3.59502448       2.91697730       3.54104018       3.59502448       2.91697730
C        2.45100665       0.54631108       1.37048862       2.45100665       0.54631108       1.37048862
C        2.48785657       0.63035298       4.43658885       2.48785657       0.63035298       4.43658885
C        1.36919716       3.52064395       5.76850169       1.36919716       3.52064395       5.76850169
C        0.36445054       0.55394463       4.29974745       0.36445054       0.55394463       4.29974745
C        1.45937458       3.60201369       2.92586337       1.45937458       3.60201369       2.92586337
C        3.51532367       3.54626089       5.77543359       3.51532367       3.54626089       5.77543359
N        1.40766839       0.53756615       5.09509516       1.40766839       0.53756615       5.09509516
N        2.48526804       3.66552490       3.67182742       2.48526804       3.66552490       3.67182742
N        3.57885517       0.57692872       5.12472467       3.57885517       0.57692872       5.12472467
N        0.31054605       3.65679633       0.64432785       0.31054605       3.65679633       0.64432785
N        3.50620147       0.50896986       2.19125324       3.50620147       0.50896986       2.19125324
N        2.44343467       3.63903583       0.59660301       2.44343467       3.63903583       0.59660301
N        1.44236053       0.49746963       2.16261102       1.44236053       0.49746963       2.16261102
N        0.35418082       3.61178878       3.63742394       0.35418082       3.61178878       3.63742394
O        0.41915229       1.53725900       3.56486274       0.41915229       1.53725900       3.56486274
O        3.59348273       2.55474614       2.16780398       3.59348273       2.55474614       2.16780398
O        3.52937968       2.56375005       5.10305708       3.52937968       2.56375005       5.10305708
O        1.42619004       2.53785491       5.10938089       1.42619004       2.53785491       5.10938089
O        0.34789104       1.62785614       0.69940095       0.34789104       1.62785614       0.69940095
O        1.46115379       2.64107297       2.17604039       1.46115379       2.64107297       2.17604039
O        2.45887494       1.60490784       0.70195093       2.45887494       1.60490784       0.70195093
O        2.39663621       1.61241652       3.68824340       2.39663621       1.61241652       3.68824340
