32
Lattice="4.20203877 0.0 0.0 0.0 4.16474724 0.0 0.0 0.0 5.87899733" Properties=species:S:1:pos:R:3:unwrapped_position:R:3 Time=10500.0 virial="261.50820833 -4.60369534 -1.72090738 -4.60369534 244.1501361 -1.17629067 -1.72090738 -1.17629067 256.46439376" phase=C2N2H2O2-Pn pressure=400 temperature=500 energy=-149.90093851 stress="2.55962385 -0.04324812 -0.01904213 -0.04324812 2.38353355 -0.01169153 -0.01904213 -0.01169153 2.50125374" pbc="T T T"
H        3.96605735       1.80353833       2.81915197       3.96605735       1.80353833       2.81915197
H        2.15992351       2.44413292       1.30138362       2.15992351       2.44413292       1.30138362
H        0.03925027       2.57116351       1.32439814       0.03925027       2.57116351       1.32439814
H        1.65559299       1.45733712       2.89728580       1.65559299       1.45733712       2.89728580
H        3.89573350       1.58869007       5.84253330       3.89573350       1.58869007       5.84253330
H        2.06932063       2.42528868       4.28051284       2.06932063       2.42528868       4.28051284
H        1.52411661       1.46187335       5.76778642       1.52411661       1.46187335       5.76778642
H        0.17466627       2.72094225       4.41842767       4.37670503       2.72094225       4.41842767
C        0.37557281       0.54900675       1.40435522       0.37557281       0.54900675       1.40435522
C        3.47968093       3.56576397       2.87832685       3.47968093       3.56576397       2.87832685
C        2.50616720       0.59982706       1.42859948       2.50616720       0.59982706       1.42859948
C        2.47940409       0.60247548       4.35807512       2.47940409       0.60247548       4.35807512
C        1.43507141       3.58197273       5.78104600       1.43507141       3.58197273       5.78104600
C        0.37707705       0.59941044       4.34652747       0.37707705       0.59941044       4.34652747
C        1.38590881       3.55595009       2.85234757       1.38590881       3.55595009       2.85234757
C        3.50250297       3.56063887       5.81443210       3.50250297       3.56063887       5.81443210
N        1.39788528       0.53660263       5.11573643       1.39788528       0.53660263       5.11573643
N        2.48070993       3.62867157       3.65303178       2.48070993       3.62867157       3.65303178
N        3.51944424       0.50522792       5.12784643       3.51944424       0.50522792       5.12784643
N        0.38886353       3.63152422       0.70469599       0.38886353       3.63152422       0.70469599
N        3.56484884       0.51594008       2.16855563       3.56484884       0.51594008       2.16855563
N        2.48826962       3.67905116       0.67119951       2.48826962       3.67905116       0.67119951
N        1.44193560       0.54443529       2.15214000       1.44193560       0.54443529       2.15214000
N        0.32049725       3.65078306       3.61787116       0.32049725       3.65078306       3.61787116
O        0.44290373       1.65839867       3.63580406       0.44290373       1.65839867       3.63580406
O        3.47472400       2.52972805       2.13833544       3.47472400       2.52972805       2.13833544
O        3.46471664       2.48904444       5.15415314       3.46471664       2.48904444       5.15415314
O        1.34467760       2.59623746       5.10311370       1.34467760       2.59623746       5.10311370
O        0.40267338       1.58941679       0.69382797       0.40267338       1.58941679       0.69382797
O        1.42098720       2.55194390       2.12480542       1.42098720       2.55194390       2.12480542
O        2.50373946       1.63799735       0.67708221       2.50373946       1.63799735       0.67708221
O        2.53360248       1.62182492       3.66677492       2.53360248       1.62182492       3.66677492
