32
Lattice="4.20203877 0.0 0.0 0.0 4.16474724 0.0 0.0 0.0 5.87899733" Properties=species:S:1:pos:R:3:unwrapped_position:R:3 Time=30500.00000003 virial="260.48014689 0.07647332 0.8871574 0.07647332 254.45378546 -3.78161165 0.8871574 -3.78161165 257.6258991" phase=C2N2H2O2-Pn pressure=400 temperature=500 energy=-149.88381386 stress="2.54523066 -0.00089662 0.00633872 -0.00089662 2.48542323 -0.0345608 0.00633872 -0.0345608 2.52028494" pbc="T T T"
H        3.12590504       1.75758882       2.83528360       3.12590504       1.75758882       2.83528360
H        2.53007411       2.50615802       1.30502697       2.53007411       2.50615802       1.30502697
H        0.64458839       2.48627215       1.44601301       0.64458839       2.48627215       1.44601301
H        1.14515216       1.54190662       2.96954138       1.14515216       1.54190662       2.96954138
H        3.74110991       1.67740794       0.09888474       3.74110991       1.67740794       5.97788207
H        2.37864549       2.40389491       4.39863220       2.37864549       2.40389491       4.39863220
H        1.74739867       1.91357313       5.85109816       1.74739867       1.91357313       5.85109816
H        0.09234785       2.41555018       4.47794815       4.29438662       2.41555018       4.47794815
C        0.33729662       0.62758641       1.39337175       0.33729662       0.62758641       1.39337175
C        3.55494289       3.56982657       2.84454741       3.55494289       3.56982657       2.84454741
C        2.48429518       0.55543581       1.44946074       2.48429518       0.55543581       1.44946074
C        2.50470173       0.54195076       4.34279979       2.50470173       0.54195076       4.34279979
C        1.40351217       3.60955978       5.77707519       1.40351217       3.60955978       5.77707519
C        0.40826775       0.60626919       4.35585261       0.40826775       0.60626919       4.35585261
C        1.42007504       3.58185202       2.86904722       1.42007504       3.58185202       2.86904722
C        3.55371029       3.60931220       5.81718330       3.55371029       3.60931220       5.81718331
N        1.43687774       0.52741308       5.04402473       1.43687774       0.52741308       5.04402473
N        2.47006876       3.62235682       3.60349940       2.47006876       3.62235682       3.60349940
N        3.55823485       0.49669683       5.07457792       3.55823485       0.49669683       5.07457792
N        0.38544695       3.67274664       0.71897832       0.38544695       3.67274664       0.71897832
N        3.53656271       0.56997675       2.17226944       3.53656271       0.56997675       2.17226944
N        2.47775010       3.63753998       0.68128465       2.47775010       3.63753998       0.68128465
N        1.40832375       0.52140672       2.16917859       1.40832375       0.52140672       2.16917859
N        0.36399378       3.60892075       3.68593181       0.36399378       3.60892075       3.68593181
O        0.29648676       1.59241925       3.63275840       0.29648676       1.59241925       3.63275840
O        3.55062466       2.56753789       2.13292835       3.55062466       2.56753789       2.13292835
O        3.48116443       2.54608713       5.15477373       3.48116443       2.54608713       5.15477373
O        1.38515227       2.54872711       5.06728990       1.38515227       2.54872711       5.06728990
O        0.39371787       1.63847814       0.69313783       0.39371787       1.63847814       0.69313783
O        1.45039385       2.58679377       2.16028037       1.45039385       2.58679377       2.16028037
O        2.48448214       1.57424653       0.74377300       2.48448214       1.57424653       0.74377300
O        2.42638216       1.57152372       3.63501147       2.42638216       1.57152372       3.63501147
